+ 0.1 /NodeList/0/DeviceList/1/$ns3::PointToPointNetDevice/TxQueue/Enqueue ns3::PppHeader (Point-to-Point Protocol: IP (0x0021)) ns3::Ipv4Header (tos 0x0 DSCP Default ECN Not-ECT ttl 64 id 0 protocol 6 offset (bytes) 0 flags [none] length: 56 10.1.1.1 > 10.20.1.2) ns3::TcpHeader (49153 > 12345 [SYN] Seq=0 Ack=0 Win=65535 ns3::TcpOptionTS(100;0) ns3::TcpOptionWinScale(2) ns3::TcpOptionSackPermitted([sack_perm]) ns3::TcpOptionEnd(EOL))
- 0.1 /NodeList/0/DeviceList/1/$ns3::PointToPointNetDevice/TxQueue/Dequeue ns3::PppHeader (Point-to-Point Protocol: IP (0x0021)) ns3::Ipv4Header (tos 0x0 DSCP Default ECN Not-ECT ttl 64 id 0 protocol 6 offset (bytes) 0 flags [none] length: 56 10.1.1.1 > 10.20.1.2) ns3::TcpHeader (49153 > 12345 [SYN] Seq=0 Ack=0 Win=65535 ns3::TcpOptionTS(100;0) ns3::TcpOptionWinScale(2) ns3::TcpOptionSackPermitted([sack_perm]) ns3::TcpOptionEnd(EOL))
r 0.102093 /NodeList/2/DeviceList/1/$ns3::PointToPointNetDevice/MacRx ns3::PppHeader (Point-to-Point Protocol: IP (0x0021)) ns3::Ipv4Header (tos 0x0 DSCP Default ECN Not-ECT ttl 64 id 0 protocol 6 offset (bytes) 0 flags [none] length: 56 10.1.1.1 > 10.20.1.2) ns3::TcpHeader (49153 > 12345 [SYN] Seq=0 Ack=0 Win=65535 ns3::TcpOptionTS(100;0) ns3::TcpOptionWinScale(2) ns3::TcpOptionSackPermitted([sack_perm]) ns3::TcpOptionEnd(EOL))
+ 0.102093 /NodeList/2/DeviceList/2/$ns3::PointToPointNetDevice/TxQueue/Enqueue ns3::PppHeader (Point-to-Point Protocol: IP (0x0021)) ns3::Ipv4Header (tos 0x0 DSCP Default ECN Not-ECT ttl 63 id 0 protocol 6 offset (bytes) 0 flags [none] length: 56 10.1.1.1 > 10.20.1.2) ns3::TcpHeader (49153 > 12345 [SYN] Seq=0 Ack=0 Win=65535 ns3::TcpOptionTS(100;0) ns3::TcpOptionWinScale(2) ns3::TcpOptionSackPermitted([sack_perm]) ns3::TcpOptionEnd(EOL))
- 0.102093 /NodeList/2/DeviceList/2/$ns3::PointToPointNetDevice/TxQueue/Dequeue ns3::PppHeader (Point-to-Point Protocol: IP (0x0021)) ns3::Ipv4Header (tos 0x0 DSCP Default ECN Not-ECT ttl 63 id 0 protocol 6 offset (bytes) 0 flags [none] length: 56 10.1.1.1 > 10.20.1.2) ns3::TcpHeader (49153 > 12345 [SYN] Seq=0 Ack=0 Win=65535 ns3::TcpOptionTS(100;0) ns3::TcpOptionWinScale(2) ns3::TcpOptionSackPermitted([sack_perm]) ns3::TcpOptionEnd(EOL))
r 0.104186 /NodeList/4/DeviceList/1/$ns3::PointToPointNetDevice/MacRx ns3::PppHeader (Point-to-Point Protocol: IP (0x0021)) ns3::Ipv4Header (tos 0x0 DSCP Default ECN Not-ECT ttl 63 id 0 protocol 6 offset (bytes) 0 flags [none] length: 56 10.1.1.1 > 10.20.1.2) ns3::TcpHeader (49153 > 12345 [SYN] Seq=0 Ack=0 Win=65535 ns3::TcpOptionTS(100;0) ns3::TcpOptionWinScale(2) ns3::TcpOptionSackPermitted([sack_perm]) ns3::TcpOptionEnd(EOL))
+ 0.104186 /NodeList/4/DeviceList/3/$ns3::PointToPointNetDevice/TxQueue/Enqueue ns3::PppHeader (Point-to-Point Protocol: IP (0x0021)) ns3::Ipv4Header (tos 0x0 DSCP Default ECN Not-ECT ttl 62 id 0 protocol 6 offset (bytes) 0 flags [none] length: 56 10.1.1.1 > 10.20.1.2) ns3::TcpHeader (49153 > 12345 [SYN] Seq=0 Ack=0 Win=65535 ns3::TcpOptionTS(100;0) ns3::TcpOptionWinScale(2) ns3::TcpOptionSackPermitted([sack_perm]) ns3::TcpOptionEnd(EOL))
- 0.104186 /NodeList/4/DeviceList/3/$ns3::PointToPointNetDevice/TxQueue/Dequeue ns3::PppHeader (Point-to-Point Protocol: IP (0x0021)) ns3::Ipv4Header (tos 0x0 DSCP Default ECN Not-ECT ttl 62 id 0 protocol 6 offset (bytes) 0 flags [none] length: 56 10.1.1.1 > 10.20.1.2) ns3::TcpHeader (49153 > 12345 [SYN] Seq=0 Ack=0 Win=65535 ns3::TcpOptionTS(100;0) ns3::TcpOptionWinScale(2) ns3::TcpOptionSackPermitted([sack_perm]) ns3::TcpOptionEnd(EOL))
r 0.106278 /NodeList/1/DeviceList/1/$ns3::PointToPointNetDevice/MacRx ns3::PppHeader (Point-to-Point Protocol: IP (0x0021)) ns3::Ipv4Header (tos 0x0 DSCP Default ECN Not-ECT ttl 62 id 0 protocol 6 offset (bytes) 0 flags [none] length: 56 10.1.1.1 > 10.20.1.2) ns3::TcpHeader (49153 > 12345 [SYN] Seq=0 Ack=0 Win=65535 ns3::TcpOptionTS(100;0) ns3::TcpOptionWinScale(2) ns3::TcpOptionSackPermitted([sack_perm]) ns3::TcpOptionEnd(EOL))
+ 0.106278 /NodeList/1/DeviceList/1/$ns3::PointToPointNetDevice/TxQueue/Enqueue ns3::PppHeader (Point-to-Point Protocol: IP (0x0021)) ns3::Ipv4Header (tos 0x0 DSCP Default ECN Not-ECT ttl 64 id 0 protocol 6 offset (bytes) 0 flags [none] length: 56 10.20.1.2 > 10.1.1.1) ns3::TcpHeader (12345 > 49153 [SYN|ACK] Seq=0 Ack=1 Win=65535 ns3::TcpOptionTS(106;100) ns3::TcpOptionWinScale(2) ns3::TcpOptionSackPermitted([sack_perm]) ns3::TcpOptionEnd(EOL))
- 0.106278 /NodeList/1/DeviceList/1/$ns3::PointToPointNetDevice/TxQueue/Dequeue ns3::PppHeader (Point-to-Point Protocol: IP (0x0021)) ns3::Ipv4Header (tos 0x0 DSCP Default ECN Not-ECT ttl 64 id 0 protocol 6 offset (bytes) 0 flags [none] length: 56 10.20.1.2 > 10.1.1.1) ns3::TcpHeader (12345 > 49153 [SYN|ACK] Seq=0 Ack=1 Win=65535 ns3::TcpOptionTS(106;100) ns3::TcpOptionWinScale(2) ns3::TcpOptionSackPermitted([sack_perm]) ns3::TcpOptionEnd(EOL))
r 0.108371 /NodeList/4/DeviceList/3/$ns3::PointToPointNetDevice/MacRx ns3::PppHeader (Point-to-Point Protocol: IP (0x0021)) ns3::Ipv4Header (tos 0x0 DSCP Default ECN Not-ECT ttl 64 id 0 protocol 6 offset (bytes) 0 flags [none] length: 56 10.20.1.2 > 10.1.1.1) ns3::TcpHeader (12345 > 49153 [SYN|ACK] Seq=0 Ack=1 Win=65535 ns3::TcpOptionTS(106;100) ns3::TcpOptionWinScale(2) ns3::TcpOptionSackPermitted([sack_perm]) ns3::TcpOptionEnd(EOL))
+ 0.108371 /NodeList/4/DeviceList/2/$ns3::PointToPointNetDevice/TxQueue/Enqueue ns3::PppHeader (Point-to-Point Protocol: IP (0x0021)) ns3::Ipv4Header (tos 0x0 DSCP Default ECN Not-ECT ttl 63 id 0 protocol 6 offset (bytes) 0 flags [none] length: 56 10.20.1.2 > 10.1.1.1) ns3::TcpHeader (12345 > 49153 [SYN|ACK] Seq=0 Ack=1 Win=65535 ns3::TcpOptionTS(106;100) ns3::TcpOptionWinScale(2) ns3::TcpOptionSackPermitted([sack_perm]) ns3::TcpOptionEnd(EOL))
- 0.108371 /NodeList/4/DeviceList/2/$ns3::PointToPointNetDevice/TxQueue/Dequeue ns3::PppHeader (Point-to-Point Protocol: IP (0x0021)) ns3::Ipv4Header (tos 0x0 DSCP Default ECN Not-ECT ttl 63 id 0 protocol 6 offset (bytes) 0 flags [none] length: 56 10.20.1.2 > 10.1.1.1) ns3::TcpHeader (12345 > 49153 [SYN|ACK] Seq=0 Ack=1 Win=65535 ns3::TcpOptionTS(106;100) ns3::TcpOptionWinScale(2) ns3::TcpOptionSackPermitted([sack_perm]) ns3::TcpOptionEnd(EOL))
r 0.110464 /NodeList/3/DeviceList/2/$ns3::PointToPointNetDevice/MacRx ns3::PppHeader (Point-to-Point Protocol: IP (0x0021)) ns3::Ipv4Header (tos 0x0 DSCP Default ECN Not-ECT ttl 63 id 0 protocol 6 offset (bytes) 0 flags [none] length: 56 10.20.1.2 > 10.1.1.1) ns3::TcpHeader (12345 > 49153 [SYN|ACK] Seq=0 Ack=1 Win=65535 ns3::TcpOptionTS(106;100) ns3::TcpOptionWinScale(2) ns3::TcpOptionSackPermitted([sack_perm]) ns3::TcpOptionEnd(EOL))
+ 0.110464 /NodeList/3/DeviceList/1/$ns3::PointToPointNetDevice/TxQueue/Enqueue ns3::PppHeader (Point-to-Point Protocol: IP (0x0021)) ns3::Ipv4Header (tos 0x0 DSCP Default ECN Not-ECT ttl 62 id 0 protocol 6 offset (bytes) 0 flags [none] length: 56 10.20.1.2 > 10.1.1.1) ns3::TcpHeader (12345 > 49153 [SYN|ACK] Seq=0 Ack=1 Win=65535 ns3::TcpOptionTS(106;100) ns3::TcpOptionWinScale(2) ns3::TcpOptionSackPermitted([sack_perm]) ns3::TcpOptionEnd(EOL))
- 0.110464 /NodeList/3/DeviceList/1/$ns3::PointToPointNetDevice/TxQueue/Dequeue ns3::PppHeader (Point-to-Point Protocol: IP (0x0021)) ns3::Ipv4Header (tos 0x0 DSCP Default ECN Not-ECT ttl 62 id 0 protocol 6 offset (bytes) 0 flags [none] length: 56 10.20.1.2 > 10.1.1.1) ns3::TcpHeader (12345 > 49153 [SYN|ACK] Seq=0 Ack=1 Win=65535 ns3::TcpOptionTS(106;100) ns3::TcpOptionWinScale(2) ns3::TcpOptionSackPermitted([sack_perm]) ns3::TcpOptionEnd(EOL))
r 0.112557 /NodeList/0/DeviceList/2/$ns3::PointToPointNetDevice/MacRx ns3::PppHeader (Point-to-Point Protocol: IP (0x0021)) ns3::Ipv4Header (tos 0x0 DSCP Default ECN Not-ECT ttl 62 id 0 protocol 6 offset (bytes) 0 flags [none] length: 56 10.20.1.2 > 10.1.1.1) ns3::TcpHeader (12345 > 49153 [SYN|ACK] Seq=0 Ack=1 Win=65535 ns3::TcpOptionTS(106;100) ns3::TcpOptionWinScale(2) ns3::TcpOptionSackPermitted([sack_perm]) ns3::TcpOptionEnd(EOL))
+ 0.112557 /NodeList/0/DeviceList/1/$ns3::PointToPointNetDevice/TxQueue/Enqueue ns3::PppHeader (Point-to-Point Protocol: IP (0x0021)) ns3::Ipv4Header (tos 0x0 DSCP Default ECN Not-ECT ttl 64 id 1 protocol 6 offset (bytes) 0 flags [none] length: 52 10.1.1.1 > 10.20.1.2) ns3::TcpHeader (49153 > 12345 [ACK] Seq=1 Ack=1 Win=32768 ns3::TcpOptionTS(112;106) ns3::TcpOptionEnd(EOL))
- 0.112557 /NodeList/0/DeviceList/1/$ns3::PointToPointNetDevice/TxQueue/Dequeue ns3::PppHeader (Point-to-Point Protocol: IP (0x0021)) ns3::Ipv4Header (tos 0x0 DSCP Default ECN Not-ECT ttl 64 id 1 protocol 6 offset (bytes) 0 flags [none] length: 52 10.1.1.1 > 10.20.1.2) ns3::TcpHeader (49153 > 12345 [ACK] Seq=1 Ack=1 Win=32768 ns3::TcpOptionTS(112;106) ns3::TcpOptionEnd(EOL))
+ 0.112557 /NodeList/0/DeviceList/1/$ns3::PointToPointNetDevice/TxQueue/Enqueue ns3::PppHeader (Point-to-Point Protocol: IP (0x0021)) ns3::Ipv4Header (tos 0x0 DSCP Default ECN Not-ECT ttl 64 id 2 protocol 6 offset (bytes) 0 flags [none] length: 588 10.1.1.1 > 10.20.1.2) ns3::TcpHeader (49153 > 12345 [ACK] Seq=1 Ack=1 Win=32768 ns3::TcpOptionTS(112;106) ns3::TcpOptionEnd(EOL)) Payload Fragment [0:536]
- 0.112643 /NodeList/0/DeviceList/1/$ns3::PointToPointNetDevice/TxQueue/Dequeue ns3::PppHeader (Point-to-Point Protocol: IP (0x0021)) ns3::Ipv4Header (tos 0x0 DSCP Default ECN Not-ECT ttl 64 id 2 protocol 6 offset (bytes) 0 flags [none] length: 588 10.1.1.1 > 10.20.1.2) ns3::TcpHeader (49153 > 12345 [ACK] Seq=1 Ack=1 Win=32768 ns3::TcpOptionTS(112;106) ns3::TcpOptionEnd(EOL)) Payload Fragment [0:536]
r 0.114643 /NodeList/2/DeviceList/1/$ns3::PointToPointNetDevice/MacRx ns3::PppHeader (Point-to-Point Protocol: IP (0x0021)) ns3::Ipv4Header (tos 0x0 DSCP Default ECN Not-ECT ttl 64 id 1 protocol 6 offset (bytes) 0 flags [none] length: 52 10.1.1.1 > 10.20.1.2) ns3::TcpHeader (49153 > 12345 [ACK] Seq=1 Ack=1 Win=32768 ns3::TcpOptionTS(112;106) ns3::TcpOptionEnd(EOL))
+ 0.114643 /NodeList/2/DeviceList/2/$ns3::PointToPointNetDevice/TxQueue/Enqueue ns3::PppHeader (Point-to-Point Protocol: IP (0x0021)) ns3::Ipv4Header (tos 0x0 DSCP Default ECN Not-ECT ttl 63 id 1 protocol 6 offset (bytes) 0 flags [none] length: 52 10.1.1.1 > 10.20.1.2) ns3::TcpHeader (49153 > 12345 [ACK] Seq=1 Ack=1 Win=32768 ns3::TcpOptionTS(112;106) ns3::TcpOptionEnd(EOL))
- 0.114643 /NodeList/2/DeviceList/2/$ns3::PointToPointNetDevice/TxQueue/Dequeue ns3::PppHeader (Point-to-Point Protocol: IP (0x0021)) ns3::Ipv4Header (tos 0x0 DSCP Default ECN Not-ECT ttl 63 id 1 protocol 6 offset (bytes) 0 flags [none] length: 52 10.1.1.1 > 10.20.1.2) ns3::TcpHeader (49153 > 12345 [ACK] Seq=1 Ack=1 Win=32768 ns3::TcpOptionTS(112;106) ns3::TcpOptionEnd(EOL))
r 0.115587 /NodeList/2/DeviceList/1/$ns3::PointToPointNetDevice/MacRx ns3::PppHeader (Point-to-Point Protocol: IP (0x0021)) ns3::Ipv4Header (tos 0x0 DSCP Default ECN Not-ECT ttl 64 id 2 protocol 6 offset (bytes) 0 flags [none] length: 588 10.1.1.1 > 10.20.1.2) ns3::TcpHeader (49153 > 12345 [ACK] Seq=1 Ack=1 Win=32768 ns3::TcpOptionTS(112;106) ns3::TcpOptionEnd(EOL)) Payload Fragment [0:536]
+ 0.115587 /NodeList/2/DeviceList/2/$ns3::PointToPointNetDevice/TxQueue/Enqueue ns3::PppHeader (Point-to-Point Protocol: IP (0x0021)) ns3::Ipv4Header (tos 0x0 DSCP Default ECN Not-ECT ttl 63 id 2 protocol 6 offset (bytes) 0 flags [none] length: 588 10.1.1.1 > 10.20.1.2) ns3::TcpHeader (49153 > 12345 [ACK] Seq=1 Ack=1 Win=32768 ns3::TcpOptionTS(112;106) ns3::TcpOptionEnd(EOL)) Payload Fragment [0:536]
- 0.115587 /NodeList/2/DeviceList/2/$ns3::PointToPointNetDevice/TxQueue/Dequeue ns3::PppHeader (Point-to-Point Protocol: IP (0x0021)) ns3::Ipv4Header (tos 0x0 DSCP Default ECN Not-ECT ttl 63 id 2 protocol 6 offset (bytes) 0 flags [none] length: 588 10.1.1.1 > 10.20.1.2) ns3::TcpHeader (49153 > 12345 [ACK] Seq=1 Ack=1 Win=32768 ns3::TcpOptionTS(112;106) ns3::TcpOptionEnd(EOL)) Payload Fragment [0:536]
r 0.11673 /NodeList/4/DeviceList/1/$ns3::PointToPointNetDevice/MacRx ns3::PppHeader (Point-to-Point Protocol: IP (0x0021)) ns3::Ipv4Header (tos 0x0 DSCP Default ECN Not-ECT ttl 63 id 1 protocol 6 offset (bytes) 0 flags [none] length: 52 10.1.1.1 > 10.20.1.2) ns3::TcpHeader (49153 > 12345 [ACK] Seq=1 Ack=1 Win=32768 ns3::TcpOptionTS(112;106) ns3::TcpOptionEnd(EOL))
+ 0.11673 /NodeList/4/DeviceList/3/$ns3::PointToPointNetDevice/TxQueue/Enqueue ns3::PppHeader (Point-to-Point Protocol: IP (0x0021)) ns3::Ipv4Header (tos 0x0 DSCP Default ECN Not-ECT ttl 62 id 1 protocol 6 offset (bytes) 0 flags [none] length: 52 10.1.1.1 > 10.20.1.2) ns3::TcpHeader (49153 > 12345 [ACK] Seq=1 Ack=1 Win=32768 ns3::TcpOptionTS(112;106) ns3::TcpOptionEnd(EOL))
- 0.11673 /NodeList/4/DeviceList/3/$ns3::PointToPointNetDevice/TxQueue/Dequeue ns3::PppHeader (Point-to-Point Protocol: IP (0x0021)) ns3::Ipv4Header (tos 0x0 DSCP Default ECN Not-ECT ttl 62 id 1 protocol 6 offset (bytes) 0 flags [none] length: 52 10.1.1.1 > 10.20.1.2) ns3::TcpHeader (49153 > 12345 [ACK] Seq=1 Ack=1 Win=32768 ns3::TcpOptionTS(112;106) ns3::TcpOptionEnd(EOL))
r 0.118531 /NodeList/4/DeviceList/1/$ns3::PointToPointNetDevice/MacRx ns3::PppHeader (Point-to-Point Protocol: IP (0x0021)) ns3::Ipv4Header (tos 0x0 DSCP Default ECN Not-ECT ttl 63 id 2 protocol 6 offset (bytes) 0 flags [none] length: 588 10.1.1.1 > 10.20.1.2) ns3::TcpHeader (49153 > 12345 [ACK] Seq=1 Ack=1 Win=32768 ns3::TcpOptionTS(112;106) ns3::TcpOptionEnd(EOL)) Payload Fragment [0:536]
+ 0.118531 /NodeList/4/DeviceList/3/$ns3::PointToPointNetDevice/TxQueue/Enqueue ns3::PppHeader (Point-to-Point Protocol: IP (0x0021)) ns3::Ipv4Header (tos 0x0 DSCP Default ECN Not-ECT ttl 62 id 2 protocol 6 offset (bytes) 0 flags [none] length: 588 10.1.1.1 > 10.20.1.2) ns3::TcpHeader (49153 > 12345 [ACK] Seq=1 Ack=1 Win=32768 ns3::TcpOptionTS(112;106) ns3::TcpOptionEnd(EOL)) Payload Fragment [0:536]
- 0.118531 /NodeList/4/DeviceList/3/$ns3::PointToPointNetDevice/TxQueue/Dequeue ns3::PppHeader (Point-to-Point Protocol: IP (0x0021)) ns3::Ipv4Header (tos 0x0 DSCP Default ECN Not-ECT ttl 62 id 2 protocol 6 offset (bytes) 0 flags [none] length: 588 10.1.1.1 > 10.20.1.2) ns3::TcpHeader (49153 > 12345 [ACK] Seq=1 Ack=1 Win=32768 ns3::TcpOptionTS(112;106) ns3::TcpOptionEnd(EOL)) Payload Fragment [0:536]
r 0.118816 /NodeList/1/DeviceList/1/$ns3::PointToPointNetDevice/MacRx ns3::PppHeader (Point-to-Point Protocol: IP (0x0021)) ns3::Ipv4Header (tos 0x0 DSCP Default ECN Not-ECT ttl 62 id 1 protocol 6 offset (bytes) 0 flags [none] length: 52 10.1.1.1 > 10.20.1.2) ns3::TcpHeader (49153 > 12345 [ACK] Seq=1 Ack=1 Win=32768 ns3::TcpOptionTS(112;106) ns3::TcpOptionEnd(EOL))
r 0.121475 /NodeList/1/DeviceList/1/$ns3::PointToPointNetDevice/MacRx ns3::PppHeader (Point-to-Point Protocol: IP (0x0021)) ns3::Ipv4Header (tos 0x0 DSCP Default ECN Not-ECT ttl 62 id 2 protocol 6 offset (bytes) 0 flags [none] length: 588 10.1.1.1 > 10.20.1.2) ns3::TcpHeader (49153 > 12345 [ACK] Seq=1 Ack=1 Win=32768 ns3::TcpOptionTS(112;106) ns3::TcpOptionEnd(EOL)) Payload Fragment [0:536]
+ 0.121475 /NodeList/1/DeviceList/1/$ns3::PointToPointNetDevice/TxQueue/Enqueue ns3::PppHeader (Point-to-Point Protocol: IP (0x0021)) ns3::Ipv4Header (tos 0x0 DSCP Default ECN Not-ECT ttl 64 id 1 protocol 6 offset (bytes) 0 flags [none] length: 52 10.20.1.2 > 10.1.1.1) ns3::TcpHeader (12345 > 49153 [ACK] Seq=1 Ack=537 Win=32768 ns3::TcpOptionTS(121;112) ns3::TcpOptionEnd(EOL))
- 0.121475 /NodeList/1/DeviceList/1/$ns3::PointToPointNetDevice/TxQueue/Dequeue ns3::PppHeader (Point-to-Point Protocol: IP (0x0021)) ns3::Ipv4Header (tos 0x0 DSCP Default ECN Not-ECT ttl 64 id 1 protocol 6 offset (bytes) 0 flags [none] length: 52 10.20.1.2 > 10.1.1.1) ns3::TcpHeader (12345 > 49153 [ACK] Seq=1 Ack=537 Win=32768 ns3::TcpOptionTS(121;112) ns3::TcpOptionEnd(EOL))
r 0.123562 /NodeList/4/DeviceList/3/$ns3::PointToPointNetDevice/MacRx ns3::PppHeader (Point-to-Point Protocol: IP (0x0021)) ns3::Ipv4Header (tos 0x0 DSCP Default ECN Not-ECT ttl 64 id 1 protocol 6 offset (bytes) 0 flags [none] length: 52 10.20.1.2 > 10.1.1.1) ns3::TcpHeader (12345 > 49153 [ACK] Seq=1 Ack=537 Win=32768 ns3::TcpOptionTS(121;112) ns3::TcpOptionEnd(EOL))
+ 0.123562 /NodeList/4/DeviceList/2/$ns3::PointToPointNetDevice/TxQueue/Enqueue ns3::PppHeader (Point-to-Point Protocol: IP (0x0021)) ns3::Ipv4Header (tos 0x0 DSCP Default ECN Not-ECT ttl 63 id 1 protocol 6 offset (bytes) 0 flags [none] length: 52 10.20.1.2 > 10.1.1.1) ns3::TcpHeader (12345 > 49153 [ACK] Seq=1 Ack=537 Win=32768 ns3::TcpOptionTS(121;112) ns3::TcpOptionEnd(EOL))
- 0.123562 /NodeList/4/DeviceList/2/$ns3::PointToPointNetDevice/TxQueue/Dequeue ns3::PppHeader (Point-to-Point Protocol: IP (0x0021)) ns3::Ipv4Header (tos 0x0 DSCP Default ECN Not-ECT ttl 63 id 1 protocol 6 offset (bytes) 0 flags [none] length: 52 10.20.1.2 > 10.1.1.1) ns3::TcpHeader (12345 > 49153 [ACK] Seq=1 Ack=537 Win=32768 ns3::TcpOptionTS(121;112) ns3::TcpOptionEnd(EOL))
r 0.125648 /NodeList/3/DeviceList/2/$ns3::PointToPointNetDevice/MacRx ns3::PppHeader (Point-to-Point Protocol: IP (0x0021)) ns3::Ipv4Header (tos 0x0 DSCP Default ECN Not-ECT ttl 63 id 1 protocol 6 offset (bytes) 0 flags [none] length: 52 10.20.1.2 > 10.1.1.1) ns3::TcpHeader (12345 > 49153 [ACK] Seq=1 Ack=537 Win=32768 ns3::TcpOptionTS(121;112) ns3::TcpOptionEnd(EOL))
+ 0.125648 /NodeList/3/DeviceList/1/$ns3::PointToPointNetDevice/TxQueue/Enqueue ns3::PppHeader (Point-to-Point Protocol: IP (0x0021)) ns3::Ipv4Header (tos 0x0 DSCP Default ECN Not-ECT ttl 62 id 1 protocol 6 offset (bytes) 0 flags [none] length: 52 10.20.1.2 > 10.1.1.1) ns3::TcpHeader (12345 > 49153 [ACK] Seq=1 Ack=537 Win=32768 ns3::TcpOptionTS(121;112) ns3::TcpOptionEnd(EOL))
- 0.125648 /NodeList/3/DeviceList/1/$ns3::PointToPointNetDevice/TxQueue/Dequeue ns3::PppHeader (Point-to-Point Protocol: IP (0x0021)) ns3::Ipv4Header (tos 0x0 DSCP Default ECN Not-ECT ttl 62 id 1 protocol 6 offset (bytes) 0 flags [none] length: 52 10.20.1.2 > 10.1.1.1) ns3::TcpHeader (12345 > 49153 [ACK] Seq=1 Ack=537 Win=32768 ns3::TcpOptionTS(121;112) ns3::TcpOptionEnd(EOL))
r 0.127734 /NodeList/0/DeviceList/2/$ns3::PointToPointNetDevice/MacRx ns3::PppHeader (Point-to-Point Protocol: IP (0x0021)) ns3::Ipv4Header (tos 0x0 DSCP Default ECN Not-ECT ttl 62 id 1 protocol 6 offset (bytes) 0 flags [none] length: 52 10.20.1.2 > 10.1.1.1) ns3::TcpHeader (12345 > 49153 [ACK] Seq=1 Ack=537 Win=32768 ns3::TcpOptionTS(121;112) ns3::TcpOptionEnd(EOL))
+ 0.127734 /NodeList/0/DeviceList/1/$ns3::PointToPointNetDevice/TxQueue/Enqueue ns3::PppHeader (Point-to-Point Protocol: IP (0x0021)) ns3::Ipv4Header (tos 0x0 DSCP Default ECN Not-ECT ttl 64 id 3 protocol 6 offset (bytes) 0 flags [none] length: 588 10.1.1.1 > 10.20.1.2) ns3::TcpHeader (49153 > 12345 [ACK] Seq=537 Ack=1 Win=32768 ns3::TcpOptionTS(127;121) ns3::TcpOptionEnd(EOL)) Payload Fragment [536:1040] Payload Fragment [0:32]
- 0.127734 /NodeList/0/DeviceList/1/$ns3::PointToPointNetDevice/TxQueue/Dequeue ns3::PppHeader (Point-to-Point Protocol: IP (0x0021)) ns3::Ipv4Header (tos 0x0 DSCP Default ECN Not-ECT ttl 64 id 3 protocol 6 offset (bytes) 0 flags [none] length: 588 10.1.1.1 > 10.20.1.2) ns3::TcpHeader (49153 > 12345 [ACK] Seq=537 Ack=1 Win=32768 ns3::TcpOptionTS(127;121) ns3::TcpOptionEnd(EOL)) Payload Fragment [536:1040] Payload Fragment [0:32]
+ 0.127734 /NodeList/0/DeviceList/1/$ns3::PointToPointNetDevice/TxQueue/Enqueue ns3::PppHeader (Point-to-Point Protocol: IP (0x0021)) ns3::Ipv4Header (tos 0x0 DSCP Default ECN Not-ECT ttl 64 id 4 protocol 6 offset (bytes) 0 flags [none] length: 588 10.1.1.1 > 10.20.1.2) ns3::TcpHeader (49153 > 12345 [ACK] Seq=1073 Ack=1 Win=32768 ns3::TcpOptionTS(127;121) ns3::TcpOptionEnd(EOL)) Payload Fragment [32:568]
- 0.128678 /NodeList/0/DeviceList/1/$ns3::PointToPointNetDevice/TxQueue/Dequeue ns3::PppHeader (Point-to-Point Protocol: IP (0x0021)) ns3::Ipv4Header (tos 0x0 DSCP Default ECN Not-ECT ttl 64 id 4 protocol 6 offset (bytes) 0 flags [none] length: 588 10.1.1.1 > 10.20.1.2) ns3::TcpHeader (49153 > 12345 [ACK] Seq=1073 Ack=1 Win=32768 ns3::TcpOptionTS(127;121) ns3::TcpOptionEnd(EOL)) Payload Fragment [32:568]
r 0.130678 /NodeList/2/DeviceList/1/$ns3::PointToPointNetDevice/MacRx ns3::PppHeader (Point-to-Point Protocol: IP (0x0021)) ns3::Ipv4Header (tos 0x0 DSCP Default ECN Not-ECT ttl 64 id 3 protocol 6 offset (bytes) 0 flags [none] length: 588 10.1.1.1 > 10.20.1.2) ns3::TcpHeader (49153 > 12345 [ACK] Seq=537 Ack=1 Win=32768 ns3::TcpOptionTS(127;121) ns3::TcpOptionEnd(EOL)) Payload Fragment [536:1040] Payload Fragment [0:32]
+ 0.130678 /NodeList/2/DeviceList/2/$ns3::PointToPointNetDevice/TxQueue/Enqueue ns3::PppHeader (Point-to-Point Protocol: IP (0x0021)) ns3::Ipv4Header (tos 0x0 DSCP Default ECN Not-ECT ttl 63 id 3 protocol 6 offset (bytes) 0 flags [none] length: 588 10.1.1.1 > 10.20.1.2) ns3::TcpHeader (49153 > 12345 [ACK] Seq=537 Ack=1 Win=32768 ns3::TcpOptionTS(127;121) ns3::TcpOptionEnd(EOL)) Payload Fragment [536:1040] Payload Fragment [0:32]
- 0.130678 /NodeList/2/DeviceList/2/$ns3::PointToPointNetDevice/TxQueue/Dequeue ns3::PppHeader (Point-to-Point Protocol: IP (0x0021)) ns3::Ipv4Header (tos 0x0 DSCP Default ECN Not-ECT ttl 63 id 3 protocol 6 offset (bytes) 0 flags [none] length: 588 10.1.1.1 > 10.20.1.2) ns3::TcpHeader (49153 > 12345 [ACK] Seq=537 Ack=1 Win=32768 ns3::TcpOptionTS(127;121) ns3::TcpOptionEnd(EOL)) Payload Fragment [536:1040] Payload Fragment [0:32]
r 0.131622 /NodeList/2/DeviceList/1/$ns3::PointToPointNetDevice/MacRx ns3::PppHeader (Point-to-Point Protocol: IP (0x0021)) ns3::Ipv4Header (tos 0x0 DSCP Default ECN Not-ECT ttl 64 id 4 protocol 6 offset (bytes) 0 flags [none] length: 588 10.1.1.1 > 10.20.1.2) ns3::TcpHeader (49153 > 12345 [ACK] Seq=1073 Ack=1 Win=32768 ns3::TcpOptionTS(127;121) ns3::TcpOptionEnd(EOL)) Payload Fragment [32:568]
+ 0.131622 /NodeList/2/DeviceList/2/$ns3::PointToPointNetDevice/TxQueue/Enqueue ns3::PppHeader (Point-to-Point Protocol: IP (0x0021)) ns3::Ipv4Header (tos 0x0 DSCP Default ECN Not-ECT ttl 63 id 4 protocol 6 offset (bytes) 0 flags [none] length: 588 10.1.1.1 > 10.20.1.2) ns3::TcpHeader (49153 > 12345 [ACK] Seq=1073 Ack=1 Win=32768 ns3::TcpOptionTS(127;121) ns3::TcpOptionEnd(EOL)) Payload Fragment [32:568]
- 0.131622 /NodeList/2/DeviceList/2/$ns3::PointToPointNetDevice/TxQueue/Dequeue ns3::PppHeader (Point-to-Point Protocol: IP (0x0021)) ns3::Ipv4Header (tos 0x0 DSCP Default ECN Not-ECT ttl 63 id 4 protocol 6 offset (bytes) 0 flags [none] length: 588 10.1.1.1 > 10.20.1.2) ns3::TcpHeader (49153 > 12345 [ACK] Seq=1073 Ack=1 Win=32768 ns3::TcpOptionTS(127;121) ns3::TcpOptionEnd(EOL)) Payload Fragment [32:568]
r 0.133622 /NodeList/4/DeviceList/1/$ns3::PointToPointNetDevice/MacRx ns3::PppHeader (Point-to-Point Protocol: IP (0x0021)) ns3::Ipv4Header (tos 0x0 DSCP Default ECN Not-ECT ttl 63 id 3 protocol 6 offset (bytes) 0 flags [none] length: 588 10.1.1.1 > 10.20.1.2) ns3::TcpHeader (49153 > 12345 [ACK] Seq=537 Ack=1 Win=32768 ns3::TcpOptionTS(127;121) ns3::TcpOptionEnd(EOL)) Payload Fragment [536:1040] Payload Fragment [0:32]
+ 0.133622 /NodeList/4/DeviceList/3/$ns3::PointToPointNetDevice/TxQueue/Enqueue ns3::PppHeader (Point-to-Point Protocol: IP (0x0021)) ns3::Ipv4Header (tos 0x0 DSCP Default ECN Not-ECT ttl 62 id 3 protocol 6 offset (bytes) 0 flags [none] length: 588 10.1.1.1 > 10.20.1.2) ns3::TcpHeader (49153 > 12345 [ACK] Seq=537 Ack=1 Win=32768 ns3::TcpOptionTS(127;121) ns3::TcpOptionEnd(EOL)) Payload Fragment [536:1040] Payload Fragment [0:32]
- 0.133622 /NodeList/4/DeviceList/3/$ns3::PointToPointNetDevice/TxQueue/Dequeue ns3::PppHeader (Point-to-Point Protocol: IP (0x0021)) ns3::Ipv4Header (tos 0x0 DSCP Default ECN Not-ECT ttl 62 id 3 protocol 6 offset (bytes) 0 flags [none] length: 588 10.1.1.1 > 10.20.1.2) ns3::TcpHeader (49153 > 12345 [ACK] Seq=537 Ack=1 Win=32768 ns3::TcpOptionTS(127;121) ns3::TcpOptionEnd(EOL)) Payload Fragment [536:1040] Payload Fragment [0:32]
r 0.134566 /NodeList/4/DeviceList/1/$ns3::PointToPointNetDevice/MacRx ns3::PppHeader (Point-to-Point Protocol: IP (0x0021)) ns3::Ipv4Header (tos 0x0 DSCP Default ECN Not-ECT ttl 63 id 4 protocol 6 offset (bytes) 0 flags [none] length: 588 10.1.1.1 > 10.20.1.2) ns3::TcpHeader (49153 > 12345 [ACK] Seq=1073 Ack=1 Win=32768 ns3::TcpOptionTS(127;121) ns3::TcpOptionEnd(EOL)) Payload Fragment [32:568]
+ 0.134566 /NodeList/4/DeviceList/3/$ns3::PointToPointNetDevice/TxQueue/Enqueue ns3::PppHeader (Point-to-Point Protocol: IP (0x0021)) ns3::Ipv4Header (tos 0x0 DSCP Default ECN Not-ECT ttl 62 id 4 protocol 6 offset (bytes) 0 flags [none] length: 588 10.1.1.1 > 10.20.1.2) ns3::TcpHeader (49153 > 12345 [ACK] Seq=1073 Ack=1 Win=32768 ns3::TcpOptionTS(127;121) ns3::TcpOptionEnd(EOL)) Payload Fragment [32:568]
- 0.134566 /NodeList/4/DeviceList/3/$ns3::PointToPointNetDevice/TxQueue/Dequeue ns3::PppHeader (Point-to-Point Protocol: IP (0x0021)) ns3::Ipv4Header (tos 0x0 DSCP Default ECN Not-ECT ttl 62 id 4 protocol 6 offset (bytes) 0 flags [none] length: 588 10.1.1.1 > 10.20.1.2) ns3::TcpHeader (49153 > 12345 [ACK] Seq=1073 Ack=1 Win=32768 ns3::TcpOptionTS(127;121) ns3::TcpOptionEnd(EOL)) Payload Fragment [32:568]
r 0.136566 /NodeList/1/DeviceList/1/$ns3::PointToPointNetDevice/MacRx ns3::PppHeader (Point-to-Point Protocol: IP (0x0021)) ns3::Ipv4Header (tos 0x0 DSCP Default ECN Not-ECT ttl 62 id 3 protocol 6 offset (bytes) 0 flags [none] length: 588 10.1.1.1 > 10.20.1.2) ns3::TcpHeader (49153 > 12345 [ACK] Seq=537 Ack=1 Win=32768 ns3::TcpOptionTS(127;121) ns3::TcpOptionEnd(EOL)) Payload Fragment [536:1040] Payload Fragment [0:32]
r 0.13751 /NodeList/1/DeviceList/1/$ns3::PointToPointNetDevice/MacRx ns3::PppHeader (Point-to-Point Protocol: IP (0x0021)) ns3::Ipv4Header (tos 0x0 DSCP Default ECN Not-ECT ttl 62 id 4 protocol 6 offset (bytes) 0 flags [none] length: 588 10.1.1.1 > 10.20.1.2) ns3::TcpHeader (49153 > 12345 [ACK] Seq=1073 Ack=1 Win=32768 ns3::TcpOptionTS(127;121) ns3::TcpOptionEnd(EOL)) Payload Fragment [32:568]
+ 0.13751 /NodeList/1/DeviceList/1/$ns3::PointToPointNetDevice/TxQueue/Enqueue ns3::PppHeader (Point-to-Point Protocol: IP (0x0021)) ns3::Ipv4Header (tos 0x0 DSCP Default ECN Not-ECT ttl 64 id 2 protocol 6 offset (bytes) 0 flags [none] length: 52 10.20.1.2 > 10.1.1.1) ns3::TcpHeader (12345 > 49153 [ACK] Seq=1 Ack=1609 Win=32768 ns3::TcpOptionTS(137;127) ns3::TcpOptionEnd(EOL))
- 0.13751 /NodeList/1/DeviceList/1/$ns3::PointToPointNetDevice/TxQueue/Dequeue ns3::PppHeader (Point-to-Point Protocol: IP (0x0021)) ns3::Ipv4Header (tos 0x0 DSCP Default ECN Not-ECT ttl 64 id 2 protocol 6 offset (bytes) 0 flags [none] length: 52 10.20.1.2 > 10.1.1.1) ns3::TcpHeader (12345 > 49153 [ACK] Seq=1 Ack=1609 Win=32768 ns3::TcpOptionTS(137;127) ns3::TcpOptionEnd(EOL))
r 0.139597 /NodeList/4/DeviceList/3/$ns3::PointToPointNetDevice/MacRx ns3::PppHeader (Point-to-Point Protocol: IP (0x0021)) ns3::Ipv4Header (tos 0x0 DSCP Default ECN Not-ECT ttl 64 id 2 protocol 6 offset (bytes) 0 flags [none] length: 52 10.20.1.2 > 10.1.1.1) ns3::TcpHeader (12345 > 49153 [ACK] Seq=1 Ack=1609 Win=32768 ns3::TcpOptionTS(137;127) ns3::TcpOptionEnd(EOL))
+ 0.139597 /NodeList/4/DeviceList/2/$ns3::PointToPointNetDevice/TxQueue/Enqueue ns3::PppHeader (Point-to-Point Protocol: IP (0x0021)) ns3::Ipv4Header (tos 0x0 DSCP Default ECN Not-ECT ttl 63 id 2 protocol 6 offset (bytes) 0 flags [none] length: 52 10.20.1.2 > 10.1.1.1) ns3::TcpHeader (12345 > 49153 [ACK] Seq=1 Ack=1609 Win=32768 ns3::TcpOptionTS(137;127) ns3::TcpOptionEnd(EOL))
- 0.139597 /NodeList/4/DeviceList/2/$ns3::PointToPointNetDevice/TxQueue/Dequeue ns3::PppHeader (Point-to-Point Protocol: IP (0x0021)) ns3::Ipv4Header (tos 0x0 DSCP Default ECN Not-ECT ttl 63 id 2 protocol 6 offset (bytes) 0 flags [none] length: 52 10.20.1.2 > 10.1.1.1) ns3::TcpHeader (12345 > 49153 [ACK] Seq=1 Ack=1609 Win=32768 ns3::TcpOptionTS(137;127) ns3::TcpOptionEnd(EOL))
r 0.141683 /NodeList/3/DeviceList/2/$ns3::PointToPointNetDevice/MacRx ns3::PppHeader (Point-to-Point Protocol: IP (0x0021)) ns3::Ipv4Header (tos 0x0 DSCP Default ECN Not-ECT ttl 63 id 2 protocol 6 offset (bytes) 0 flags [none] length: 52 10.20.1.2 > 10.1.1.1) ns3::TcpHeader (12345 > 49153 [ACK] Seq=1 Ack=1609 Win=32768 ns3::TcpOptionTS(137;127) ns3::TcpOptionEnd(EOL))
+ 0.141683 /NodeList/3/DeviceList/1/$ns3::PointToPointNetDevice/TxQueue/Enqueue ns3::PppHeader (Point-to-Point Protocol: IP (0x0021)) ns3::Ipv4Header (tos 0x0 DSCP Default ECN Not-ECT ttl 62 id 2 protocol 6 offset (bytes) 0 flags [none] length: 52 10.20.1.2 > 10.1.1.1) ns3::TcpHeader (12345 > 49153 [ACK] Seq=1 Ack=1609 Win=32768 ns3::TcpOptionTS(137;127) ns3::TcpOptionEnd(EOL))
- 0.141683 /NodeList/3/DeviceList/1/$ns3::PointToPointNetDevice/TxQueue/Dequeue ns3::PppHeader (Point-to-Point Protocol: IP (0x0021)) ns3::Ipv4Header (tos 0x0 DSCP Default ECN Not-ECT ttl 62 id 2 protocol 6 offset (bytes) 0 flags [none] length: 52 10.20.1.2 > 10.1.1.1) ns3::TcpHeader (12345 > 49153 [ACK] Seq=1 Ack=1609 Win=32768 ns3::TcpOptionTS(137;127) ns3::TcpOptionEnd(EOL))
r 0.14377 /NodeList/0/DeviceList/2/$ns3::PointToPointNetDevice/MacRx ns3::PppHeader (Point-to-Point Protocol: IP (0x0021)) ns3::Ipv4Header (tos 0x0 DSCP Default ECN Not-ECT ttl 62 id 2 protocol 6 offset (bytes) 0 flags [none] length: 52 10.20.1.2 > 10.1.1.1) ns3::TcpHeader (12345 > 49153 [ACK] Seq=1 Ack=1609 Win=32768 ns3::TcpOptionTS(137;127) ns3::TcpOptionEnd(EOL))
+ 0.14377 /NodeList/0/DeviceList/1/$ns3::PointToPointNetDevice/TxQueue/Enqueue ns3::PppHeader (Point-to-Point Protocol: IP (0x0021)) ns3::Ipv4Header (tos 0x0 DSCP Default ECN Not-ECT ttl 64 id 5 protocol 6 offset (bytes) 0 flags [none] length: 588 10.1.1.1 > 10.20.1.2) ns3::TcpHeader (49153 > 12345 [ACK] Seq=1609 Ack=1 Win=32768 ns3::TcpOptionTS(143;137) ns3::TcpOptionEnd(EOL)) Payload Fragment [568:1040] Payload Fragment [0:64]